<UPF version="2.0.1">
  <PP_INFO>
Generated using Vanderbilt code, version   7  3  6
Author: kfg        Generation date:    1    4   15
Automatically converted from original USPP format to UPF.v1.

Futher converted to UPF.v2 format.
Convert Q_IJ to Q_IJL use the same routine as 'upflib/upf_to_internal.f90' of QE.
The conversion is done by using PseudoPotentialIO.jl package.
Converted by: JYU on 2024-04-30

1        The Pseudo was generated with a Scalar-Relativistic Calculation
1.60000000000E+00    Local Potential cutoff radius
nl pn  l   occ               Rcut            Rcut US             E pseu
4S  4  0  2.00      0.00000000000      1.50000000000     -7.27487498300
4P  4  1  6.00      0.00000000000      1.50000000000     -4.59453496500
4D  4  2 10.00      0.00000000000      1.70000000000     -0.83552577500
5S  5  0  0.50      0.00000000000      1.50000000000     -0.56705074500
5P  5  1  0.00      0.00000000000      1.50000000000     -0.24577891300
</PP_INFO>
  <PP_HEADER element="Ag" pseudo_type="US" relativistic="scalar" is_ultrasoft="T" is_paw="F" is_coulomb="F" has_so="F" has_wfc="F" has_gipaw="F" core_correction="T" functional="PBE" z_valence="19.0" total_psenergy="-295.212484506" wfc_cutoff="0.0" rho_cutoff="0.0" l_max="2" mesh_size="887" number_of_wfc="5" number_of_proj="6"/>
  <PP_MESH>
    <PP_R>
0.00000000000000E+00 1.21745768857000E-09 2.46573546525000E-09 3.74561354430000E-09
5.05789189118000E-09 6.40339072257000E-09 7.78295101905000E-09 9.19743505070000E-09
1.06477269161000E-08 1.21347330948000E-08 1.36593830142000E-08 1.52226296301000E-08
1.68254500225000E-08 1.84688460062000E-08 2.01538447574000E-08 2.18814994550000E-08
2.36528899395000E-08 2.54691233877000E-08 2.73313350044000E-08 2.92406887327000E-08
3.11983779808000E-08 3.32056263681000E-08 3.52636884903000E-08 3.73738507031000E-08
3.95374319267000E-08 4.17557844697000E-08 4.40302948747000E-08 4.63623847848000E-08
4.87535118320000E-08 5.12051705485000E-08 5.37188933010000E-08 5.62962512479000E-08
5.89388553219000E-08 6.16483572365000E-08 6.44264505187000E-08 6.72748715671000E-08
7.01954007376000E-08 7.31898634561000E-08 7.62601313593000E-08 7.94081234644000E-08
8.26358073691000E-08 8.59452004808000E-08 8.93383712781000E-08 9.28174406030000E-08
9.63845829872000E-08 1.00042028011000E-07 1.03792061696000E-07 1.07637027936000E-07
1.11579329959000E-07 1.15621431834000E-07 1.19765860005000E-07 1.24015204874000E-07
1.28372122421000E-07 1.32839335860000E-07 1.37419637347000E-07 1.42115889717000E-07
1.46931028282000E-07 1.51868062661000E-07 1.56930078659000E-07 1.62120240203000E-07
1.67441791312000E-07 1.72898058128000E-07 1.78492450997000E-07 1.84228466595000E-07
1.90109690119000E-07 1.96139797526000E-07 2.02322557829000E-07 2.08661835454000E-07
2.15161592655000E-07 2.21825891994000E-07 2.28658898874000E-07 2.35664884147000E-07
2.42848226781000E-07 2.50213416600000E-07 2.57765057086000E-07 2.65507868262000E-07
2.73446689636000E-07 2.81586483229000E-07 2.89932336679000E-07 2.98489466414000E-07
3.07263220921000E-07 3.16259084079000E-07 3.25482678598000E-07 3.34939769524000E-07
3.44636267847000E-07 3.54578234193000E-07 3.64771882615000E-07 3.75223584476000E-07
3.85939872430000E-07 3.96927444504000E-07 4.08193168290000E-07 4.19744085231000E-07
4.31587415026000E-07 4.43730560143000E-07 4.56181110442000E-07 4.68946847922000E-07
4.82035751586000E-07 4.95456002423000E-07 5.09215988527000E-07 5.23324310338000E-07
5.37789786016000E-07 5.52621456955000E-07 5.67828593430000E-07 5.83420700399000E-07
5.99407523435000E-07 6.15799054822000E-07 6.32605539802000E-07 6.49837482975000E-07
6.67505654867000E-07 6.85621098659000E-07 7.04195137094000E-07 7.23239379551000E-07
7.42765729301000E-07 7.62786390948000E-07 7.83313878058000E-07 8.04361020978000E-07
8.25940974858000E-07 8.48067227871000E-07 8.70753609646000E-07 8.94014299910000E-07
9.17863837351000E-07 9.42317128707000E-07 9.67389458081000E-07 9.93096496495000E-07
1.01945431168000E-06 1.04647937814000E-06 1.07418858742000E-06 1.10259925866000E-06
1.13172914947000E-06 1.16159646698000E-06 1.19221987923000E-06 1.22361852685000E-06
1.25581203503000E-06 1.28882052574000E-06 1.32266463037000E-06 1.35736550259000E-06
1.39294483157000E-06 1.42942485556000E-06 1.46682837574000E-06 1.50517877055000E-06
1.54450001023000E-06 1.58481667183000E-06 1.62615395457000E-06 1.66853769561000E-06
1.71199438616000E-06 1.75655118807000E-06 1.80223595080000E-06 1.84907722879000E-06
1.89710429939000E-06 1.94634718106000E-06 1.99683665222000E-06 2.04860427043000E-06
2.10168239213000E-06 2.15610419288000E-06 2.21190368807000E-06 2.26911575421000E-06
2.32777615070000E-06 2.38792154220000E-06 2.44958952153000E-06 2.51281863320000E-06
2.57764839744000E-06 2.64411933498000E-06 2.71227299231000E-06 2.78215196770000E-06
2.85379993777000E-06 2.92726168483000E-06 3.00258312488000E-06 3.07981133626000E-06
3.15899458912000E-06 3.24018237557000E-06 3.32342544061000E-06 3.40877581388000E-06
3.49628684214000E-06 3.58601322263000E-06 3.67801103725000E-06 3.77233778764000E-06
3.86905243108000E-06 3.96821541737000E-06 4.06988872662000E-06 4.17413590794000E-06
4.28102211923000E-06 4.39061416783000E-06 4.50298055235000E-06 4.61819150545000E-06
4.73631903770000E-06 4.85743698267000E-06 4.98162104301000E-06 5.10894883781000E-06
5.23949995108000E-06 5.37335598152000E-06 5.51060059350000E-06 5.65131956938000E-06
5.79560086309000E-06 5.94353465514000E-06 6.09521340896000E-06 6.25073192872000E-06
6.41018741855000E-06 6.57367954332000E-06 6.74131049094000E-06 6.91318503620000E-06
7.08941060629000E-06 7.27009734792000E-06 7.45535819620000E-06 7.64530894518000E-06
7.84006832026000E-06 8.03975805239000E-06 8.24450295417000E-06 8.45443099780000E-06
8.66967339517000E-06 8.89036467976000E-06 9.11664279082000E-06 9.34864915954000E-06
9.58652879744000E-06 9.83043038705000E-06 1.00805063748000E-05 1.03369130663000E-05
1.05998107241000E-05 1.08693636678000E-05 1.11457403768000E-05 1.14291135954000E-05
1.17196604413000E-05 1.20175625156000E-05 1.23230060167000E-05 1.26361818570000E-05
1.29572857813000E-05 1.32865184902000E-05 1.36240857649000E-05 1.39701985957000E-05
1.43250733146000E-05 1.46889317298000E-05 1.50620012646000E-05 1.54445150996000E-05
1.58367123185000E-05 1.62388380572000E-05 1.66511436575000E-05 1.70738868238000E-05
1.75073317842000E-05 1.79517494561000E-05 1.84074176149000E-05 1.88746210680000E-05
1.93536518329000E-05 1.98448093194000E-05 2.03484005167000E-05 2.08647401860000E-05
2.13941510562000E-05 2.19369640264000E-05 2.24935183724000E-05 2.30641619587000E-05
2.36492514561000E-05 2.42491525647000E-05 2.48642402422000E-05 2.54948989384000E-05
2.61415228355000E-05 2.68045160944000E-05 2.74842931076000E-05 2.81812787579000E-05
2.88959086838000E-05 2.96286295525000E-05 3.03798993383000E-05 3.11501876093000E-05
3.19399758207000E-05 3.27497576158000E-05 3.35800391347000E-05 3.44313393303000E-05
3.53041902929000E-05 3.61991375829000E-05 3.71167405714000E-05 3.80575727901000E-05
3.90222222898000E-05 4.00112920079000E-05 4.10254001451000E-05 4.20651805520000E-05
4.31312831253000E-05 4.42243742137000E-05 4.53451370347000E-05 4.64942721016000E-05
4.76724976613000E-05 4.88805501429000E-05 5.01191846188000E-05 5.13891752757000E-05
5.26913158991000E-05 5.40264203694000E-05 5.53953231702000E-05 5.67988799105000E-05
5.82379678588000E-05 5.97134864919000E-05 6.12263580570000E-05 6.27775281482000E-05
6.43679662972000E-05 6.59986665796000E-05 6.76706482362000E-05 6.93849563100000E-05
7.11426622992000E-05 7.29448648275000E-05 7.47926903299000E-05 7.66872937576000E-05
7.86298592995000E-05 8.06216011222000E-05 8.26637641291000E-05 8.47576247388000E-05
8.69044916821000E-05 8.91057068208000E-05 9.13626459861000E-05 9.36767198383000E-05
9.60493747491000E-05 9.84820937048000E-05 1.00976397234000E-04 1.03533844358000E-04
1.06156033564000E-04 1.08844603806000E-04 1.11601235527000E-04 1.14427651713000E-04
1.17325618965000E-04 1.20296948607000E-04 1.23343497818000E-04 1.26467170789000E-04
1.29669919917000E-04 1.32953747026000E-04 1.36320704614000E-04 1.39772897139000E-04
1.43312482334000E-04 1.46941672554000E-04 1.50662736163000E-04 1.54477998945000E-04
1.58389845564000E-04 1.62400721052000E-04 1.66513132337000E-04 1.70729649808000E-04
1.75052908928000E-04 1.79485611873000E-04 1.84030529228000E-04 1.88690501713000E-04
1.93468441964000E-04 1.98367336347000E-04 2.03390246833000E-04 2.08540312902000E-04
2.13820753515000E-04 2.19234869119000E-04 2.24786043712000E-04 2.30477746958000E-04
2.36313536358000E-04 2.42297059470000E-04 2.48432056191000E-04 2.54722361094000E-04
2.61171905823000E-04 2.67784721554000E-04 2.74564941512000E-04 2.81516803556000E-04
2.88644652825000E-04 2.95952944458000E-04 3.03446246374000E-04 3.11129242132000E-04
3.19006733853000E-04 3.27083645226000E-04 3.35365024584000E-04 3.43856048059000E-04
3.52562022816000E-04 3.61488390374000E-04 3.70640730002000E-04 3.80024762211000E-04
3.89646352326000E-04 3.99511514155000E-04 4.09626413744000E-04 4.19997373236000E-04
4.30630874817000E-04 4.41533564772000E-04 4.52712257638000E-04 4.64173940460000E-04
4.75925777165000E-04 4.87975113032000E-04 5.00329479289000E-04 5.12996597817000E-04
5.25984385977000E-04 5.39300961560000E-04 5.52954647858000E-04 5.66953978871000E-04
5.81307704636000E-04 5.96024796698000E-04 6.11114453720000E-04 6.26586107228000E-04
6.42449427509000E-04 6.58714329655000E-04 6.75390979759000E-04 6.92489801270000E-04
7.10021481509000E-04 7.27996978346000E-04 7.46427527052000E-04 7.65324647320000E-04
7.84700150465000E-04 8.04566146807000E-04 8.24935053241000E-04 8.45819600996000E-04
8.67232843595000E-04 8.89188165011000E-04 9.11699288035000E-04 9.34780282851000E-04
9.58445575833000E-04 9.82709958559000E-04 1.00758859706000E-03 1.03309704129000E-03
1.05925123486000E-03 1.08606752499000E-03 1.11356267275000E-03 1.14175386347000E-03
1.17065871760000E-03 1.20029530158000E-03 1.23068213926000E-03 1.26183822340000E-03
1.29378302757000E-03 1.32653651830000E-03 1.36011916760000E-03 1.39455196572000E-03
1.42985643426000E-03 1.46605463969000E-03 1.50316920704000E-03 1.54122333415000E-03
1.58024080606000E-03 1.62024600998000E-03 1.66126395046000E-03 1.70332026505000E-03
1.74644124031000E-03 1.79065382825000E-03 1.83598566319000E-03 1.88246507899000E-03
1.93012112681000E-03 1.97898359322000E-03 2.02908301885000E-03 2.08045071749000E-03
2.13311879560000E-03 2.18712017247000E-03 2.24248860069000E-03 2.29925868735000E-03
2.35746591559000E-03 2.41714666684000E-03 2.47833824349000E-03 2.54107889228000E-03
2.60540782816000E-03 2.67136525880000E-03 2.73899240975000E-03 2.80833155018000E-03
2.87942601930000E-03 2.95232025348000E-03 3.02705981398000E-03 3.10369141546000E-03
3.18226295518000E-03 3.26282354288000E-03 3.34542353158000E-03 3.43011454894000E-03
3.51694952962000E-03 3.60598274830000E-03 3.69726985364000E-03 3.79086790305000E-03
3.88683539837000E-03 3.98523232239000E-03 4.08612017641000E-03 4.18956201861000E-03
4.29562250352000E-03 4.40436792238000E-03 4.51586624462000E-03 4.63018716034000E-03
4.74740212381000E-03 4.86758439821000E-03 4.99080910137000E-03 5.11715325274000E-03
5.24669582154000E-03 5.37951777607000E-03 5.51570213439000E-03 5.65533401616000E-03
5.79850069584000E-03 5.94529165728000E-03 6.09579864959000E-03 6.25011574456000E-03
6.40833939538000E-03 6.57056849699000E-03 6.73690444786000E-03 6.90745121338000E-03
7.08231539082000E-03 7.26160627599000E-03 7.44543593153000E-03 7.63391925695000E-03
7.82717406047000E-03 8.02532113263000E-03 8.22848432181000E-03 8.43679061161000E-03
8.65037020024000E-03 8.86935658190000E-03 9.09388663020000E-03 9.32410068373000E-03
9.56014263378000E-03 9.80216001425000E-03 1.00503040939000E-02 1.03047299708000E-02
1.05655966694000E-02 1.08330672400000E-02 1.11073088602000E-02 1.13884929402000E-02
1.16767952290000E-02 1.19723959251000E-02 1.22754797883000E-02 1.25862362561000E-02
1.29048595613000E-02 1.32315488539000E-02 1.35665083254000E-02 1.39099473362000E-02
1.42620805469000E-02 1.46231280524000E-02 1.49933155189000E-02 1.53728743258000E-02
1.57620417096000E-02 1.61610609127000E-02 1.65701813349000E-02 1.69896586900000E-02
1.74197551649000E-02 1.78607395838000E-02 1.83128875765000E-02 1.87764817501000E-02
1.92518118661000E-02 1.97391750213000E-02 2.02388758334000E-02 2.07512266319000E-02
2.12765476526000E-02 2.18151672382000E-02 2.23674220435000E-02 2.29336572459000E-02
2.35142267606000E-02 2.41094934625000E-02 2.47198294127000E-02 2.53456160911000E-02
2.59872446347000E-02 2.66451160822000E-02 2.73196416246000E-02 2.80112428625000E-02
2.87203520691000E-02 2.94474124607000E-02 3.01928784737000E-02 3.09572160487000E-02
3.17409029215000E-02 3.25444289220000E-02 3.33682962800000E-02 3.42130199395000E-02
3.50791278802000E-02 3.59671614479000E-02 3.68776756923000E-02 3.78112397146000E-02
3.87684370226000E-02 3.97498658958000E-02 4.07561397592000E-02 4.17878875668000E-02
4.28457541945000E-02 4.39304008433000E-02 4.50425054528000E-02 4.61827631246000E-02
4.73518865567000E-02 4.85506064894000E-02 4.97796721616000E-02 5.10398517795000E-02
5.23319329963000E-02 5.36567234049000E-02 5.50150510423000E-02 5.64077649075000E-02
5.78357354921000E-02 5.92998553242000E-02 6.08010395263000E-02 6.23402263873000E-02
6.39183779493000E-02 6.55364806083000E-02 6.71955457311000E-02 6.88966102874000E-02
7.06407374980000E-02 7.24290174992000E-02 7.42625680241000E-02 7.61425351015000E-02
7.80700937721000E-02 8.00464488228000E-02 8.20728355397000E-02 8.41505204807000E-02
8.62808022663000E-02 8.84650123921000E-02 9.07045160604000E-02 9.30007130341000E-02
9.53550385108000E-02 9.77689640208000E-02 1.00243998346000E-01 1.02781688463000E-01
1.05383620512000E-01 1.08051420784000E-01 1.10786756741000E-01 1.13591338058000E-01
1.16466917689000E-01 1.19415292965000E-01 1.22438306717000E-01 1.25537848425000E-01
1.28715855406000E-01 1.31974314016000E-01 1.35315260899000E-01 1.38740784255000E-01
1.42253025148000E-01 1.45854178842000E-01 1.49546496176000E-01 1.53332284968000E-01
1.57213911460000E-01 1.61193801794000E-01 1.65274443531000E-01 1.69458387206000E-01
1.73748247920000E-01 1.78146706974000E-01 1.82656513550000E-01 1.87280486423000E-01
1.92021515726000E-01 1.96882564757000E-01 2.01866671830000E-01 2.06976952175000E-01
2.12216599883000E-01 2.17588889903000E-01 2.23097180094000E-01 2.28744913314000E-01
2.34535619581000E-01 2.40472918276000E-01 2.46560520402000E-01 2.52802230910000E-01
2.59201951072000E-01 2.65763680921000E-01 2.72491521752000E-01 2.79389678684000E-01
2.86462463291000E-01 2.93714296292000E-01 3.01149710320000E-01 3.08773352750000E-01
3.16589988607000E-01 3.24604503543000E-01 3.32821906891000E-01 3.41247334794000E-01
3.49886053421000E-01 3.58743462250000E-01 3.67825097452000E-01 3.77136635343000E-01
3.86683895939000E-01 3.96472846587000E-01 4.06509605700000E-01 4.16800446580000E-01
4.27351801337000E-01 4.38170264912000E-01 4.49262599196000E-01 4.60635737259000E-01
4.72296787683000E-01 4.84253039004000E-01 4.96511964268000E-01 5.09081225703000E-01
5.21968679506000E-01 5.35182380755000E-01 5.48730588444000E-01 5.62621770643000E-01
5.76864609794000E-01 5.91468008135000E-01 6.06441093265000E-01 6.21793223849000E-01
6.37533995470000E-01 6.53673246621000E-01 6.70221064860000E-01 6.87187793112000E-01
7.04584036135000E-01 7.22420667147000E-01 7.40708834623000E-01 7.59459969262000E-01
7.78685791135000E-01 7.98398317006000E-01 8.18609867845000E-01 8.39333076529000E-01
8.60580895739000E-01 8.82366606053000E-01 9.04703824250000E-01 9.27606511817000E-01
9.51088983680000E-01 9.75165917149000E-01 9.99852361090000E-01 1.02516374534000E+00
1.05111589032000E+00 1.07772501699000E+00 1.10500775690000E+00 1.13298116267000E+00
1.16166271857000E+00 1.19107035152000E+00 1.22122244224000E+00 1.25213783677000E+00
1.28383585823000E+00 1.31633631894000E+00 1.34965953272000E+00 1.38382632767000E+00
1.41885805916000E+00 1.45477662315000E+00 1.49160446992000E+00 1.52936461807000E+00
1.56808066892000E+00 1.60777682126000E+00 1.64847788649000E+00 1.69020930408000E+00
1.73299715755000E+00 1.77686819067000E+00 1.82184982430000E+00 1.86797017339000E+00
1.91525806468000E+00 1.96374305465000E+00 2.01345544797000E+00 2.06442631652000E+00
2.11668751876000E+00 2.17027171962000E+00 2.22521241100000E+00 2.28154393259000E+00
2.33930149344000E+00 2.39852119391000E+00 2.45924004823000E+00 2.52149600767000E+00
2.58532798422000E+00 2.65077587495000E+00 2.71788058693000E+00 2.78668406278000E+00
2.85722930691000E+00 2.92956041239000E+00 3.00372258854000E+00 3.07976218910000E+00
3.15772674132000E+00 3.23766497558000E+00 3.31962685587000E+00 3.40366361104000E+00
3.48982776680000E+00 3.57817317854000E+00 3.66875506503000E+00 3.76163004290000E+00
3.85685616202000E+00 3.95449294182000E+00 4.05460140847000E+00 4.15724413303000E+00
4.26248527052000E+00 4.37039060009000E+00 4.48102756609000E+00 4.59446532022000E+00
4.71077476476000E+00 4.83002859691000E+00 4.95230135420000E+00 5.07766946107000E+00
5.20621127668000E+00 5.33800714384000E+00 5.47313943926000E+00 5.61169262503000E+00
5.75375330140000E+00 5.89941026091000E+00 6.04875454391000E+00 6.20187949543000E+00
6.35888082355000E+00 6.51985665921000E+00 6.68490761756000E+00 6.85413686081000E+00
7.02765016275000E+00 7.20555597484000E+00 7.38796549401000E+00 7.57499273214000E+00
7.76675458734000E+00 7.96337091702000E+00 8.16496461278000E+00 8.37166167725000E+00
8.58359130282000E+00 8.80088595240000E+00 9.02368144222000E+00 9.25211702672000E+00
9.48633548558000E+00 9.72648321295000E+00 9.97271030898000E+00 1.02251706736000E+01
1.04840221028000E+01 1.07494263872000E+01 1.10215494129000E+01 1.13005612659000E+01
1.15866363376000E+01 1.18799534341000E+01 1.21806958884000E+01 1.24890516741000E+01
1.28052135237000E+01 1.31293790486000E+01 1.34617508628000E+01 1.38025367096000E+01
1.41519495911000E+01 1.45102079019000E+01 1.48775355650000E+01 1.52541621722000E+01
1.56403231273000E+01 1.60362597935000E+01 1.64422196441000E+01 1.68584564173000E+01
1.72852302746000E+01 1.77228079635000E+01 1.81714629844000E+01 1.86314757612000E+01
1.91031338168000E+01 1.95867319530000E+01 2.00825724343000E+01 2.05909651771000E+01
2.11122279435000E+01 2.16466865397000E+01 2.21946750196000E+01 2.27565358939000E+01
2.33326203440000E+01 2.39232884414000E+01 2.45289093728000E+01 2.51498616712000E+01
2.57865334517000E+01 2.64393226552000E+01 2.71086372960000E+01 2.77948957176000E+01
2.84985268539000E+01 2.92199704972000E+01 2.99596775733000E+01 3.07181104231000E+01
3.14957430920000E+01 3.22930616256000E+01 3.31105643740000E+01 3.39487623030000E+01
3.48081793135000E+01 3.56893525693000E+01 3.65928328322000E+01 3.75191848069000E+01
3.84689874935000E+01 3.94428345496000E+01 4.04413346613000E+01 4.14651119236000E+01
4.25148062307000E+01 4.35910736757000E+01 4.46945869608000E+01 4.58260358178000E+01
4.69861274389000E+01 4.81755869192000E+01 4.93951577096000E+01 5.06456020815000E+01
5.19277016035000E+01 5.32422576294000E+01 5.45900917995000E+01 5.59720465540000E+01
5.73889856597000E+01 5.88417947497000E+01 6.03313818769000E+01 6.18586780817000E+01
6.34246379741000E+01 6.50302403298000E+01 6.66764887027000E+01 6.83644120516000E+01
7.00950653835000E+01 7.18695304130000E+01 7.36889162387000E+01 7.55543600358000E+01
7.74670277675000E+01 7.94281149133000E+01 8.14388472166000E+01 8.35004814505000E+01
8.56143062034000E+01 8.77816426848000E+01 9.00038455504000E+01 9.22823037494000E+01
9.46184413923000E+01 9.70137186412000E+01 9.94696326224000E+01 1.01987718362000E+02
1.04569549746000E+02 1.07216740502000E+02 1.09930945211000E+02 1.12713860340000E+02
1.15567225300000E+02 1.18492823538000E+02 1.21492483649000E+02 1.24568080516000E+02
1.27721536489000E+02 1.30954822580000E+02 1.34269959698000E+02 1.37669019912000E+02
1.41154127745000E+02 1.44727461503000E+02 1.48391254635000E+02 1.52147797132000E+02
1.55999436955000E+02 1.59948581505000E+02 1.63997699124000E+02 1.68149320645000E+02
1.72406040964000E+02 1.76770520672000E+02 1.81245487709000E+02 1.85833739076000E+02
1.90538142579000E+02 1.95361638624000E+02 2.00307242053000E+02
</PP_R>
    <PP_RAB>
1.20230287605000E-09 1.23273931827000E-09 1.26394626269000E-09 1.29594321466000E-09
1.32875017333000E-09 1.36238764412000E-09 1.39687665153000E-09 1.43223875232000E-09
1.46849604896000E-09 1.50567120342000E-09 1.54378745141000E-09 1.58286861681000E-09
1.62293912662000E-09 1.66402402621000E-09 1.70614899499000E-09 1.74934036243000E-09
1.79362512454000E-09 1.83903096075000E-09 1.88558625116000E-09 1.93332009437000E-09
1.98226232557000E-09 2.03244353526000E-09 2.08389508831000E-09 2.13664914363000E-09
2.19073867422000E-09 2.24619748780000E-09 2.30306024792000E-09 2.36136249567000E-09
2.42114067185000E-09 2.48243213977000E-09 2.54527520858000E-09 2.60970915725000E-09
2.67577425910000E-09 2.74351180697000E-09 2.81296413902000E-09 2.88417466523000E-09
2.95718789449000E-09 3.03204946246000E-09 3.10880616004000E-09 3.18750596266000E-09
3.26819806028000E-09 3.35093288807000E-09 3.43576215801000E-09 3.52273889113000E-09
3.61191745073000E-09 3.70335357632000E-09 3.79710441845000E-09 3.89322857445000E-09
3.99178612504000E-09 4.09283867190000E-09 4.19644937617000E-09 4.30268299790000E-09
4.41160593657000E-09 4.52328627256000E-09 4.63779380972000E-09 4.75520011898000E-09
4.87557858311000E-09 4.99900444257000E-09 5.12555484253000E-09 5.25530888113000E-09
5.38834765885000E-09 5.52475432926000E-09 5.66461415097000E-09 5.80801454093000E-09
5.95504512904000E-09 6.10579781421000E-09 6.26036682177000E-09 6.41884876239000E-09
6.58134269244000E-09 6.74795017591000E-09 6.91877534791000E-09 7.09392497972000E-09
7.27350854557000E-09 7.45763829104000E-09 7.64642930321000E-09 7.83999958260000E-09
8.03847011694000E-09 8.24196495679000E-09 8.45061129303000E-09 8.66453953641000E-09
8.88388339907000E-09 9.10877997804000E-09 9.33936984101000E-09 9.57579711416000E-09
9.81820957222000E-09 1.00667587309000E-08 1.03215999414000E-08 1.05828924880000E-08
1.08507996868000E-08 1.11254889887000E-08 1.14071320833000E-08 1.16959050068000E-08
1.19919882517000E-08 1.22955668796000E-08 1.26068306371000E-08 1.29259740741000E-08
1.32531966657000E-08 1.35887029366000E-08 1.39327025892000E-08 1.42854106345000E-08
1.46470475265000E-08 1.50178392999000E-08 1.53980177118000E-08 1.57878203860000E-08
1.61874909619000E-08 1.65972792466000E-08 1.70174413711000E-08 1.74482399504000E-08
1.78899442477000E-08 1.83428303425000E-08 1.88071813034000E-08 1.92832873648000E-08
1.97714461086000E-08 2.02719626498000E-08 2.07851498275000E-08 2.13113284005000E-08
2.18508272475000E-08 2.24039835728000E-08 2.29711431172000E-08 2.35526603738000E-08
2.41488988098000E-08 2.47602310937000E-08 2.53870393281000E-08 2.60297152884000E-08
2.66886606682000E-08 2.73642873296000E-08 2.80570175614000E-08 2.87672843426000E-08
2.94955316129000E-08 3.02422145506000E-08 3.10077998568000E-08 3.17927660474000E-08
3.25976037517000E-08 3.34228160195000E-08 3.42689186353000E-08 3.51364404408000E-08
3.60259236653000E-08 3.69379242649000E-08 3.78730122696000E-08 3.88317721399000E-08
3.98148031318000E-08 4.08227196717000E-08 4.18561517403000E-08 4.29157452663000E-08
4.40021625301000E-08 4.51160825779000E-08 4.62582016460000E-08 4.74292335959000E-08
4.86299103607000E-08 4.98609824026000E-08 5.11232191816000E-08 5.24174096368000E-08
5.37443626793000E-08 5.51049076980000E-08 5.64998950779000E-08 5.79301967314000E-08
5.93967066437000E-08 6.09003414311000E-08 6.24420409144000E-08 6.40227687060000E-08
6.56435128121000E-08 6.73052862505000E-08 6.90091276839000E-08 7.07561020685000E-08
7.25473013202000E-08 7.43838449969000E-08 7.62668809980000E-08 7.81975862825000E-08
8.01771676040000E-08 8.22068622652000E-08 8.42879388914000E-08 8.64216982231000E-08
8.86094739296000E-08 9.08526334417000E-08 9.31525788073000E-08 9.55107475669000E-08
9.79286136530000E-08 1.00407688310000E-07 1.02949521042000E-07 1.05555700575000E-07
1.08227855857000E-07 1.10967657072000E-07 1.13776816685000E-07 1.16657090512000E-07
1.19610278819000E-07 1.22638227443000E-07 1.25742828951000E-07 1.28926023821000E-07
1.32189801653000E-07 1.35536202414000E-07 1.38967317714000E-07 1.42485292111000E-07
1.46092324453000E-07 1.49790669254000E-07 1.53582638100000E-07 1.57470601094000E-07
1.61456988340000E-07 1.65544291459000E-07 1.69735065150000E-07 1.74031928781000E-07
1.78437568033000E-07 1.82954736574000E-07 1.87586257781000E-07 1.92335026505000E-07
1.97204010882000E-07 2.02196254186000E-07 2.07314876730000E-07 2.12563077821000E-07
2.17944137755000E-07 2.23461419870000E-07 2.29118372647000E-07 2.34918531865000E-07
2.40865522812000E-07 2.46963062552000E-07 2.53214962246000E-07 2.59625129534000E-07
2.66197570979000E-07 2.72936394572000E-07 2.79845812296000E-07 2.86930142762000E-07
2.94193813908000E-07 3.01641365765000E-07 3.09277453295000E-07 3.17106849300000E-07
3.25134447409000E-07 3.33365265132000E-07 3.41804446998000E-07 3.50457267769000E-07
3.59329135741000E-07 3.68425596121000E-07 3.77752334491000E-07 3.87315180367000E-07
3.97120110839000E-07 4.07173254307000E-07 4.17480894314000E-07 4.28049473471000E-07
4.38885597482000E-07 4.49996039279000E-07 4.61387743248000E-07 4.73067829577000E-07
4.85043598699000E-07 4.97322535860000E-07 5.09912315795000E-07 5.22820807526000E-07
5.36056079281000E-07 5.49626403536000E-07 5.63540262185000E-07 5.77806351842000E-07
5.92433589279000E-07 6.07431116994000E-07 6.22808308931000E-07 6.38574776336000E-07
6.54740373762000E-07 6.71315205236000E-07 6.88309630567000E-07 7.05734271823000E-07
7.23600019972000E-07 7.41918041689000E-07 7.60699786334000E-07 7.79956993108000E-07
7.99701698392000E-07 8.19946243271000E-07 8.40703281243000E-07 8.61985786133000E-07
8.83807060199000E-07 9.06180742448000E-07 9.29120817160000E-07 9.52641622628000E-07
9.76757860122000E-07 1.00148460307000E-06 1.02683730650000E-06 1.05283181668000E-06
1.07948438101000E-06 1.10681165822000E-06 1.13483072874000E-06 1.16355910542000E-06
1.19301474441000E-06 1.22321605645000E-06 1.25418191835000E-06 1.28593168477000E-06
1.31848520035000E-06 1.35186281211000E-06 1.38608538213000E-06 1.42117430064000E-06
1.45715149934000E-06 1.49403946517000E-06 1.53186125430000E-06 1.57064050658000E-06
1.61040146031000E-06 1.65116896737000E-06 1.69296850878000E-06 1.73582621063000E-06
1.77976886036000E-06 1.82482392356000E-06 1.87101956112000E-06 1.91838464682000E-06
1.96694878536000E-06 2.01674233093000E-06 2.06779640610000E-06 2.12014292134000E-06
2.17381459493000E-06 2.22884497340000E-06 2.28526845253000E-06 2.34312029883000E-06
2.40243667160000E-06 2.46325464550000E-06 2.52561223373000E-06 2.58954841182000E-06
2.65510314197000E-06 2.72231739802000E-06 2.79123319105000E-06 2.86189359570000E-06
2.93434277700000E-06 3.00862601806000E-06 3.08478974832000E-06 3.16288157259000E-06
3.24295030081000E-06 3.32504597853000E-06 3.40921991822000E-06 3.49552473135000E-06
3.58401436122000E-06 3.67474411673000E-06 3.76777070694000E-06 3.86315227650000E-06
3.96094844198000E-06 4.06122032918000E-06 4.16403061129000E-06 4.26944354808000E-06
4.37752502607000E-06 4.48834259971000E-06 4.60196553357000E-06 4.71846484571000E-06
4.83791335197000E-06 4.96038571156000E-06 5.08595847369000E-06 5.21471012544000E-06
5.34672114076000E-06 5.48207403085000E-06 5.62085339567000E-06 5.76314597683000E-06
5.90904071183000E-06 6.05862878963000E-06 6.21200370766000E-06 6.36926133021000E-06
6.53049994844000E-06 6.69582034172000E-06 6.86532584068000E-06 7.03912239178000E-06
7.21731862351000E-06 7.40002591433000E-06 7.58735846223000E-06 7.77943335617000E-06
7.97637064919000E-06 8.17829343352000E-06 8.38532791748000E-06 8.59760350434000E-06
8.81525287328000E-06 9.03841206222000E-06 9.26722055292000E-06 9.50182135815000E-06
9.74236111103000E-06 9.98899015675000E-06 1.02418626465000E-05 1.05011366338000E-05
1.07669741733000E-05 1.10395414222000E-05 1.13190087438000E-05 1.16055508144000E-05
1.18993467320000E-05 1.22005801287000E-05 1.25094392851000E-05 1.28261172483000E-05
1.31508119523000E-05 1.34837263419000E-05 1.38250684993000E-05 1.41750517747000E-05
1.45338949188000E-05 1.49018222203000E-05 1.52790636459000E-05 1.56658549836000E-05
1.60624379906000E-05 1.64690605442000E-05 1.68859767968000E-05 1.73134473346000E-05
1.77517393406000E-05 1.82011267615000E-05 1.86618904792000E-05 1.91343184859000E-05
1.96187060645000E-05 2.01153559730000E-05 2.06245786339000E-05 2.11466923278000E-05
2.16820233927000E-05 2.22309064281000E-05 2.27936845037000E-05 2.33707093742000E-05
2.39623416987000E-05 2.45689512669000E-05 2.51909172293000E-05 2.58286283351000E-05
2.64824831744000E-05 2.71528904277000E-05 2.78402691215000E-05 2.85450488898000E-05
2.92676702428000E-05 3.00085848424000E-05 3.07682557845000E-05 3.15471578880000E-05
3.23457779921000E-05 3.31646152605000E-05 3.40041814929000E-05 3.48650014458000E-05
3.57476131594000E-05 3.66525682950000E-05 3.75804324790000E-05 3.85317856565000E-05
3.95072224544000E-05 4.05073525525000E-05 4.15328010644000E-05 4.25842089291000E-05
4.36622333106000E-05 4.47675480092000E-05 4.59008438826000E-05 4.70628292777000E-05
4.82542304731000E-05 4.94757921333000E-05 5.07282777742000E-05 5.20124702401000E-05
5.33291721930000E-05 5.46792066145000E-05 5.60634173201000E-05 5.74826694866000E-05
5.89378501927000E-05 6.04298689738000E-05 6.19596583902000E-05 6.35281746100000E-05
6.51363980069000E-05 6.67853337730000E-05 6.84760125467000E-05 7.02094910574000E-05
7.19868527854000E-05 7.38092086399000E-05 7.56776976524000E-05 7.75934876895000E-05
7.95577761823000E-05 8.15717908750000E-05 8.36367905924000E-05 8.57540660265000E-05
8.79249405434000E-05 9.01507710104000E-05 9.24329486439000E-05 9.47728998792000E-05
9.71720872621000E-05 9.96320103627000E-05 1.02154206713000E-04 1.04740252768000E-04
1.07391764891000E-04 1.10110400362000E-04 1.12897858418000E-04 1.15755881311000E-04
1.18686255398000E-04 1.21690812258000E-04 1.24771429837000E-04 1.27930033621000E-04
1.31168597841000E-04 1.34489146705000E-04 1.37893755663000E-04 1.41384552707000E-04
1.44963719699000E-04 1.48633493735000E-04 1.52396168543000E-04 1.56254095917000E-04
1.60209687187000E-04 1.64265414728000E-04 1.68423813499000E-04 1.72687482637000E-04